 Q-Chem 4.3, Q-Chem, Inc., Pleasanton, CA (2015)
 Q-Chem 4.3.0 for Intel X86 Linux

User input:
--------------------------------------------------------------
$molecule
0 1
H      5.766133   -2.799480   -2.516382
C      5.833987   -3.885600   -2.589207
C      4.849101   -4.591167   -3.284972
C      4.917696   -5.982352   -3.389880
C      5.987529   -6.619127   -2.783547
C      6.983509   -5.935157   -2.083046
C      6.904531   -4.547131   -1.985006
S      6.288339   -8.385018   -2.782673
C      7.785956   -8.184132   -1.817327
C      8.019603   -6.836718   -1.526209
C      9.144455   -6.497341   -0.780932
C     10.006251   -7.511938   -0.345848
C      9.750923   -8.850714   -0.649689
C      8.623915   -9.201906   -1.397682
O      6.609332   -8.846743   -4.121123
O      5.274770   -9.073133   -2.003667
H      4.159694   -6.553193   -3.928384
H     10.448393   -9.608081   -0.290782
H      8.408879  -10.242687   -1.644309
H      9.371558   -5.459577   -0.527088
H      4.021991   -4.052665   -3.748867
H      7.665981   -3.982166   -1.445029
N     11.167676   -7.190418    0.420585
C     12.304849   -6.724482   -0.280882
C     13.537641   -6.575823    0.380940
S     13.733986   -7.148671    2.042848
C     12.106519   -6.816806    2.651021
C     10.991086   -6.945794    1.803048
C     12.248314   -6.410652   -1.646156
C     13.378099   -5.952576   -2.323047
C     14.582305   -5.773801   -1.651825
C     14.651394   -6.081709   -0.294319
C     11.940542   -6.538229    4.005794
C     10.666167   -6.433441    4.560234
C      9.557644   -6.596315    3.737279
C      9.714673   -6.837661    2.372907
H     11.318557   -6.539488   -2.197333
H      8.828443   -6.959376    1.752727
H     13.302020   -5.729141   -3.387934
H     15.585743   -5.960492    0.256751
H     12.829409   -6.424603    4.629000
H      8.550160   -6.529937    4.149916
H     15.464945   -5.406182   -2.175385
H     10.547261   -6.234518    5.625410
$end

$rem
JOBTYPE         SP
METHOD          PBE0
BASIS           6-31G*
SCF_PRINT       TRUE
CDFT            TRUE
$end

$cdft
2
1 1  22
-1 23 44
$end

--------------------------------------------------------------

             Standard Nuclear Orientation (Angstroms)
    I     Atom           X                Y                Z
 ----------------------------------------------------------------
    1      H       4.1216749642     0.0035112017     4.2358288902
    2      C       4.1387634118     0.0027274801     3.1452915588
    3      C       5.3654646725     0.0023521089     2.4766227053
    4      C       5.4090380823     0.0012794885     1.0804827144
    5      C       4.2022334137     0.0005921921     0.4013017556
    6      C       2.9643366973     0.0009868822     1.0479116349
    7      C       2.9333062218     0.0020683524     2.4412893593
    8      S       4.0053891479    -0.0013539191    -1.3791776719
    9      C       2.2180569673    -0.0012655688    -1.2358304294
   10      C       1.8211285129     0.0000690270     0.1048078957
   11      C       0.4617146797     0.0003972302     0.4012880790
   12      C      -0.4655240149    -0.0004779473    -0.6482952394
   13      C      -0.0437667955    -0.0017857461    -1.9794421346
   14      C       1.3193054916    -0.0022062842    -2.2876792906
   15      O       4.4661630250    -1.2585521071    -1.9402614753
   16      O       4.4660949948     1.2545973113    -1.9431026212
   17      H       6.3556715824     0.0009205496     0.5379903873
   18      H      -0.7999095525    -0.0024503471    -2.7650190549
   19      H       1.6667221622    -0.0032150757    -3.3218896597
   20      H       0.1003480694     0.0013462036     1.4320062466
   21      H       6.2943567526     0.0028802784     3.0479834947
   22      H       1.9831653946     0.0023597898     2.9777584058
   23      N      -1.8665498785    -0.0001605091    -0.3711145881
   24      C      -2.4658546450    -1.2366636882    -0.0331672177
   25      C      -3.8654712504    -1.3470201659     0.0605279201
   26      S      -4.9023594096    -0.0000211685    -0.4284516675
   27      C      -3.8652918450     1.3473163028     0.0592267277
   28      C      -2.4656906043     1.2367377733    -0.0344516924
   29      C      -1.6973528076    -2.3849353691     0.2046050324
   30      C      -2.3033252369    -3.5961075060     0.5367024030
   31      C      -3.6848301380    -3.6860394259     0.6630670443
   32      C      -4.4599605574    -2.5515078056     0.4297989546
   33      C      -4.4596688570     2.5522255854     0.4272932696
   34      C      -3.6844310344     3.6869467048     0.6593065855
   35      C      -2.3029536099     3.5967926278     0.5328214824
   36      C      -1.6970974819     2.3852358658     0.2019355238
   37      H      -0.6133713196    -2.3440664724     0.1142903261
   38      H      -0.6131364041     2.3442103514     0.1114552749
   39      H      -1.6762218811    -4.4728507026     0.7033105797
   40      H      -5.5475121297    -2.5942280845     0.5121780478
   41      H      -5.5472122866     2.5951197759     0.5096978036
   42      H      -1.6757833112     4.4736908478     0.6983698774
   43      H      -4.1613765563    -4.6286993264     0.9325257530
   44      H      -4.1608819421     4.6299256581     0.9278100937
 ----------------------------------------------------------------

   10   -1923.2998103411      5.03E-06 Convergence criterion met
 Total energy in the final basis set = -1923.2998103411

                    Orbital Energies (a.u.)
 --------------------------------------------------------------

 Alpha MOs
 -- Occupied --
-89.301 -89.037 -19.271 -19.271 -14.476 -10.331 -10.330 -10.323
-10.322 -10.318 -10.317 -10.316 -10.316 -10.314 -10.311 -10.308
-10.305 -10.266 -10.265 -10.248 -10.246 -10.200 -10.198 -10.197
-10.195 -10.191 -10.189 -10.189 -10.188  -8.237  -8.003  -6.174
 -6.174  -6.174  -5.941  -5.937  -5.933  -1.190  -1.084  -1.013
 -0.975  -0.944  -0.889  -0.867  -0.856  -0.848  -0.837  -0.816
 -0.787  -0.765  -0.744  -0.732  -0.728  -0.710  -0.687  -0.682
 -0.672  -0.660  -0.621  -0.609  -0.606  -0.587  -0.572  -0.569
 -0.558  -0.545  -0.534  -0.529  -0.528  -0.526  -0.525  -0.520
 -0.513  -0.485  -0.478  -0.466  -0.453  -0.447  -0.446  -0.437
 -0.431  -0.429  -0.427  -0.402  -0.396  -0.395  -0.394  -0.388
 -0.388  -0.378  -0.372  -0.353  -0.349  -0.339  -0.337  -0.335
 -0.332  -0.315  -0.306  -0.303  -0.302  -0.296  -0.267  -0.218
 -0.216  -0.187  -0.148

          Ground-State Mulliken Net Atomic Charges

     Atom                 Charge (a.u.)
  ----------------------------------------
      1 H                     0.129944
      2 C                    -0.190726
      3 C                    -0.200466
      4 C                    -0.195415
      5 C                    -0.295322
      6 C                     0.083354
      7 C                    -0.206312
      8 S                     1.147254
      9 C                    -0.299362
     10 C                     0.028248
     11 C                    -0.269780
     12 C                    -0.123433
     13 C                    -0.303876
     14 C                    -0.210157
     15 O                    -0.539932
     16 O                    -0.540665
     17 H                     0.171204
     18 H                     0.101037
     19 H                     0.168057
     20 H                     0.107598
     21 H                     0.132644
     22 H                     0.116766
     23 N                    -0.375961
     24 C                     0.355054
     25 C                    -0.179621
     26 S                     0.441157
     27 C                    -0.178768
     28 C                     0.354683
     29 C                    -0.108514
     30 C                    -0.171702
     31 C                    -0.125624
     32 C                    -0.198380
     33 C                    -0.198738
     34 C                    -0.122249
     35 C                    -0.174518
     36 C                    -0.109466
     37 H                     0.303490
     38 H                     0.307290
     39 H                     0.237632
     40 H                     0.220790
     41 H                     0.222077
     42 H                     0.237805
     43 H                     0.225838
     44 H                     0.227066
  ----------------------------------------
  Sum of atomic charges =     0.000000

                    Cartesian Multipole Moments
 -----------------------------------------------------------------
    Charge (ESU x 10^10)
                 0.0000
    Dipole Moment (Debye)
         X     -28.2835      Y       0.0670      Z       5.4150
       Tot      28.7973
    Quadrupole Moments (Debye-Ang)
        XX    -178.1858     XY      -0.3956     YY    -137.9359
        XZ       8.3484     YZ       0.1122     ZZ    -193.8301

 Total job time:  225.44s(wall), 232.21s(cpu)
        *  Thank you very much for using Q-Chem.  Have a nice day.  *
