 Q-Chem 4.3, Q-Chem, Inc., Pleasanton, CA (2015)
 Q-Chem 4.3.0 for Intel X86 Linux

User input:
--------------------------------------------------------------
$molecule
0 1
H      5.766133   -2.799480   -2.516382
C      5.833987   -3.885600   -2.589207
C      4.849101   -4.591167   -3.284972
C      4.917696   -5.982352   -3.389880
C      5.987529   -6.619127   -2.783547
C      6.983509   -5.935157   -2.083046
C      6.904531   -4.547131   -1.985006
S      6.288339   -8.385018   -2.782673
C      7.785956   -8.184132   -1.817327
C      8.019603   -6.836718   -1.526209
C      9.144455   -6.497341   -0.780932
C     10.006251   -7.511938   -0.345848
C      9.750923   -8.850714   -0.649689
C      8.623915   -9.201906   -1.397682
O      6.609332   -8.846743   -4.121123
O      5.274770   -9.073133   -2.003667
H      4.159694   -6.553193   -3.928384
H     10.448393   -9.608081   -0.290782
H      8.408879  -10.242687   -1.644309
H      9.371558   -5.459577   -0.527088
H      4.021991   -4.052665   -3.748867
H      7.665981   -3.982166   -1.445029
N     11.167676   -7.190418    0.420585
C     12.304849   -6.724482   -0.280882
C     13.537641   -6.575823    0.380940
S     13.733986   -7.148671    2.042848
C     12.106519   -6.816806    2.651021
C     10.991086   -6.945794    1.803048
C     12.248314   -6.410652   -1.646156
C     13.378099   -5.952576   -2.323047
C     14.582305   -5.773801   -1.651825
C     14.651394   -6.081709   -0.294319
C     11.940542   -6.538229    4.005794
C     10.666167   -6.433441    4.560234
C      9.557644   -6.596315    3.737279
C      9.714673   -6.837661    2.372907
H     11.318557   -6.539488   -2.197333
H      8.828443   -6.959376    1.752727
H     13.302020   -5.729141   -3.387934
H     15.585743   -5.960492    0.256751
H     12.829409   -6.424603    4.629000
H      8.550160   -6.529937    4.149916
H     15.464945   -5.406182   -2.175385
H     10.547261   -6.234518    5.625410
$end

$rem
JOBTYPE         SP
METHOD          PBE0
BASIS           6-31G*
SCF_PRINT       TRUE
$end

--------------------------------------------------------------

             Standard Nuclear Orientation (Angstroms)
    I     Atom           X                Y                Z
 ----------------------------------------------------------------
    1      H       4.1216749642     0.0035112017     4.2358288902
    2      C       4.1387634118     0.0027274801     3.1452915588
    3      C       5.3654646725     0.0023521089     2.4766227053
    4      C       5.4090380823     0.0012794885     1.0804827144
    5      C       4.2022334137     0.0005921921     0.4013017556
    6      C       2.9643366973     0.0009868822     1.0479116349
    7      C       2.9333062218     0.0020683524     2.4412893593
    8      S       4.0053891479    -0.0013539191    -1.3791776719
    9      C       2.2180569673    -0.0012655688    -1.2358304294
   10      C       1.8211285129     0.0000690270     0.1048078957
   11      C       0.4617146797     0.0003972302     0.4012880790
   12      C      -0.4655240149    -0.0004779473    -0.6482952394
   13      C      -0.0437667955    -0.0017857461    -1.9794421346
   14      C       1.3193054916    -0.0022062842    -2.2876792906
   15      O       4.4661630250    -1.2585521071    -1.9402614753
   16      O       4.4660949948     1.2545973113    -1.9431026212
   17      H       6.3556715824     0.0009205496     0.5379903873
   18      H      -0.7999095525    -0.0024503471    -2.7650190549
   19      H       1.6667221622    -0.0032150757    -3.3218896597
   20      H       0.1003480694     0.0013462036     1.4320062466
   21      H       6.2943567526     0.0028802784     3.0479834947
   22      H       1.9831653946     0.0023597898     2.9777584058
   23      N      -1.8665498785    -0.0001605091    -0.3711145881
   24      C      -2.4658546450    -1.2366636882    -0.0331672177
   25      C      -3.8654712504    -1.3470201659     0.0605279201
   26      S      -4.9023594096    -0.0000211685    -0.4284516675
   27      C      -3.8652918450     1.3473163028     0.0592267277
   28      C      -2.4656906043     1.2367377733    -0.0344516924
   29      C      -1.6973528076    -2.3849353691     0.2046050324
   30      C      -2.3033252369    -3.5961075060     0.5367024030
   31      C      -3.6848301380    -3.6860394259     0.6630670443
   32      C      -4.4599605574    -2.5515078056     0.4297989546
   33      C      -4.4596688570     2.5522255854     0.4272932696
   34      C      -3.6844310344     3.6869467048     0.6593065855
   35      C      -2.3029536099     3.5967926278     0.5328214824
   36      C      -1.6970974819     2.3852358658     0.2019355238
   37      H      -0.6133713196    -2.3440664724     0.1142903261
   38      H      -0.6131364041     2.3442103514     0.1114552749
   39      H      -1.6762218811    -4.4728507026     0.7033105797
   40      H      -5.5475121297    -2.5942280845     0.5121780478
   41      H      -5.5472122866     2.5951197759     0.5096978036
   42      H      -1.6757833112     4.4736908478     0.6983698774
   43      H      -4.1613765563    -4.6286993264     0.9325257530
   44      H      -4.1608819421     4.6299256581     0.9278100937
 ----------------------------------------------------------------

    9   -1923.5215802874      5.10E-06 Convergence criterion met
 Total energy in the final basis set = -1923.5215802874

                    Orbital Energies (a.u.)
 --------------------------------------------------------------

 Alpha MOs
 -- Occupied --
-89.258 -89.053 -19.225 -19.225 -14.455 -10.309 -10.299 -10.299
-10.293 -10.290 -10.289 -10.287 -10.282 -10.279 -10.279 -10.278
-10.278 -10.275 -10.274 -10.273 -10.272 -10.250 -10.250 -10.247
-10.247 -10.246 -10.246 -10.242 -10.242  -8.194  -8.020  -6.131
 -6.131  -6.131  -5.959  -5.955  -5.949  -1.144  -1.036  -1.019
 -0.945  -0.911  -0.894  -0.889  -0.847  -0.832  -0.821  -0.802
 -0.792  -0.780  -0.778  -0.756  -0.727  -0.705  -0.687  -0.664
 -0.655  -0.638  -0.628  -0.625  -0.618  -0.584  -0.567  -0.566
 -0.558  -0.540  -0.522  -0.509  -0.499  -0.494  -0.489  -0.481
 -0.481  -0.479  -0.478  -0.476  -0.467  -0.457  -0.453  -0.441
 -0.439  -0.431  -0.431  -0.415  -0.406  -0.403  -0.397  -0.390
 -0.389  -0.385  -0.375  -0.359  -0.347  -0.346  -0.343  -0.341
 -0.337  -0.325  -0.314  -0.309  -0.290  -0.289  -0.275  -0.270
 -0.262  -0.240  -0.199

          Ground-State Mulliken Net Atomic Charges

     Atom                 Charge (a.u.)
  ----------------------------------------
      1 H                     0.189727
      2 C                    -0.177386
      3 C                    -0.155842
      4 C                    -0.192359
      5 C                    -0.269134
      6 C                     0.101397
      7 C                    -0.180407
      8 S                     1.225853
      9 C                    -0.261699
     10 C                     0.097240
     11 C                    -0.195334
     12 C                     0.156067
     13 C                    -0.135427
     14 C                    -0.208928
     15 O                    -0.500169
     16 O                    -0.500190
     17 H                     0.214768
     18 H                     0.209287
     19 H                     0.219994
     20 H                     0.203136
     21 H                     0.191362
     22 H                     0.188997
     23 N                    -0.711992
     24 C                     0.331997
     25 C                    -0.175800
     26 S                     0.232977
     27 C                    -0.175824
     28 C                     0.332060
     29 C                    -0.203608
     30 C                    -0.185124
     31 C                    -0.158646
     32 C                    -0.205140
     33 C                    -0.205079
     34 C                    -0.158684
     35 C                    -0.185169
     36 C                    -0.203648
     37 H                     0.189761
     38 H                     0.189765
     39 H                     0.176281
     40 H                     0.185215
     41 H                     0.185209
     42 H                     0.176289
     43 H                     0.174100
     44 H                     0.174105
  ----------------------------------------
  Sum of atomic charges =     0.000000

                    Cartesian Multipole Moments
 -----------------------------------------------------------------
    Charge (ESU x 10^10)
                 0.0000
    Dipole Moment (Debye)
         X      -0.8254      Y       0.0034      Z       4.6290
       Tot       4.7020
    Quadrupole Moments (Debye-Ang)
        XX    -183.2220     XY       0.0244     YY    -173.3973
        XZ      20.9225     YZ       0.0064     ZZ    -172.9068

 Total job time:  28.47s(wall), 181.43s(cpu)
        *  Thank you very much for using Q-Chem.  Have a nice day.  *
